 operating system is UNIX !

 dscf (c5l1) : TURBOMOLE V7.2 ( 21139 ) 13 Mar 2017 at 16:07:45
 Copyright (C) 2017 TURBOMOLE GmbH, Karlsruhe


    2017-08-07 11:30:41.374 



                             d s c f - program

                   idea & directorship : reinhart ahlrichs
                   program development : marco haeser
                                         michael baer
                           dft version : oliver treutler


                          quantum chemistry group
                          universitaet  karlsruhe
                                  germany




                          References             
                                                 
          TURBOMOLE:                             
              R. Ahlrichs, M. Baer, M. Haeser, H. Horn, and
              C. Koelmel
              Electronic structure calculations on workstation
              computers: the program system TURBOMOLE
              Chem. Phys. Lett. 162: 165 (1989)
          Density Functional:                              
              O. Treutler and R. Ahlrichs                      
              Efficient Molecular Numerical Integration Schemes
              J. Chem. Phys. 102: 346 (1995)                   
          Parallel Version:                                
              Performance of parallel TURBOMOLE for Density    
              Functional Calculations                          
              M. v. Arnim and R. Ahlrichs                      
              J. Comp. Chem. 19: 1746 (1998)                   
                                         




              +--------------------------------------------------+
              | Atomic coordinate, charge and isotop information |
              +--------------------------------------------------+

                    atomic coordinates            atom    charge  isotop
          0.00000000    0.00000000    0.00000000    h      1.000     0
          0.00000000    0.00000000    2.00000000    h      1.000     0
 
       center of nuclear mass  :    0.00000000    0.00000000    1.00000000
       center of nuclear charge:    0.00000000    0.00000000    1.00000000

              +--------------------------------------------------+
              |               basis set information              |
              +--------------------------------------------------+

              we will work with the 1s 3p 5d 7f 9g ... basis set
              ...i.e. with spherical basis functions...

   type   atoms  prim   cont   basis
   ---------------------------------------------------------------------------
    h        2      3      1   sto-3g hondo   [1s|3s]
   ---------------------------------------------------------------------------
   total:    2      6      2
   ---------------------------------------------------------------------------

   total number of primitive shells          :    3
   total number of contracted shells         :    2
   total number of cartesian basis functions :    2
   total number of SCF-basis functions       :    2


 integral neglect threshold       :  0.17E-08
 integral storage threshold THIZE :  0.10E-04
 integral storage threshold THIME :         5


 symmetry group of the molecule :   c1 

 the group has the following generators :
   c1(z)

    1 symmetry operations found

 there are 1 real representations :   a   

 maximum number of shells which are related by symmetry :  1


    mo occupation :
   irrep   mo's   occupied
    a        2        1
 
 number of basis functions   :                      2
 number of occupied orbitals :                      1
 

 automatic virtual orbital shift switched on 
      shift if e(lumo)-e(homo) < 0.10000000    


          ------------------------
          nuclear repulsion energy  :  0.500000000000    
          ------------------------


         -----------------
         -S,T+V- integrals
         -----------------

 1e-integrals will be neglected if expon. factor < 0.167098E-09
 
   Difference densities algorithm switched on.
   The maximal number of linear combinations of
   difference densities is                    20 .

 DIIS switched on: error vector is FDS-SDF
 Max. Iterations for DIIS is     :   5
 DIIS matrix (see manual) 
    Scaling factor of diagonals  :  1.200
    threshold for scaling factor :  0.000

 scf convergence criterion : increment of total energy < .1000000D-06
                  and increment of one-electron energy < .1000000D-03

  MOs are in ASCII format !


 reading orbital data $scfmo  from file mos
 orbital characterization : scfconv=7

 DSCF restart information will be dumped onto file mos

 
                                              current damping :  0.300
 ITERATION  ENERGY          1e-ENERGY        2e-ENERGY     NORM[dD(SAO)]  TOL
   1  -1.0491708961256    -2.1653907382    0.61621984210    0.000D+00 0.167D-08
          max. resid. norm for Fia-block=  4.635D-15 for orbital      1a         
          max. resid. fock norm         =  4.635D-15 for orbital      1a         
          Delta Eig. =     0.0000004986 eV 
 
                                              current damping :  0.300
 ITERATION  ENERGY          1e-ENERGY        2e-ENERGY     NORM[dD(SAO)]  TOL
   2  -1.0491708961256    -2.1653907382    0.61621984210    0.129D-13 0.106D-08
          Norm of current diis error: 0.17764E-14
          max. resid. norm for Fia-block=  1.082D-15 for orbital      1a         
          max. resid. fock norm         =  1.082D-15 for orbital      1a         
          Delta Eig. =     0.0000001151 eV 

 ENERGY CONVERGED !

 
                                              current damping :  0.350
 ITERATION  ENERGY          1e-ENERGY        2e-ENERGY     NORM[dD(SAO)]  TOL
   3  -1.0491708961256    -2.1653907382    0.61621984210    0.193D-15 0.857D-09
          max. resid. norm for Fia-block=  2.498D-16 for orbital      1a         
          max. resid. fock norm         =  2.498D-16 for orbital      1a         

 convergence criteria satisfied after  3 iterations


                  ------------------------------------------ 
                 |  total energy      =     -1.04917089613  |
                  ------------------------------------------ 
                 :  kinetic energy    =      1.16368270372  :
                 :  potential energy  =     -2.21285359985  :
                 :  virial theorem    =      2.10914504779  :
                 :  wavefunction norm =      1.00000000000  :
                  .......................................... 


 orbitals $scfmo  will be written to file mos

    irrep                  1a          2a   
 eigenvalues H         -0.46648     0.42093
            eV         -12.6935     11.4541
 occupation              2.0000 
 
 
 
 
 ==============================================================================
                           electrostatic moments
 ==============================================================================

 reference point for electrostatic moments:    0.00000   0.00000   0.00000

 
              nuc           elec       ->  total
 ------------------------------------------------------------------------------
                          charge      
 ------------------------------------------------------------------------------
           2.000000      -2.000000      -0.000000
 
 ------------------------------------------------------------------------------
                       dipole moment  
 ------------------------------------------------------------------------------
   x       0.000000       0.000000       0.000000
   y       0.000000       0.000000       0.000000
   z       2.000000      -2.000000       0.000000
 
   | dipole moment | =     0.0000 a.u. =     0.0000 debye 
 
 ------------------------------------------------------------------------------
                     quadrupole moment
 ------------------------------------------------------------------------------
  xx       0.000000      -1.403271      -1.403271
  yy       0.000000      -1.403271      -1.403271
  zz       4.000000      -4.894235      -0.894235
  xy       0.000000       0.000000       0.000000
  xz       0.000000       0.000000       0.000000
  yz       0.000000       0.000000       0.000000
 
     1/3  trace=      -1.233592
     anisotropy=       0.509036
 
 ==============================================================================
 


    ------------------------------------------------------------------------
         total  cpu-time :   0.07 seconds
         total wall-time :  21.16 seconds
    ------------------------------------------------------------------------

   ****  dscf : all done  ****


    2017-08-07 11:31:00.511 

